M 0.0 nn 51 x 1000 y 1000 rp stat-clus
M 0.0 sc mit/uAMPS/sims/nodescen cp none seed 0.0
M 0.0 prop Propagation/TwoRayGround ant Antenna/OmniAntenna
s 0.000000000 _0_ AGT  --- 943010868 tcp 825111858 [0 0 0 0] ------- [0:0 -1:-1 32 0] [0 0] 0 0
s 0.000296000 _1_ AGT  --- 808727860 tcp 908996918 [0 1000000 0 0] ------- [1:0 -1:-1 32 0] [0 0] 0 1
s 0.000592000 _2_ AGT  --- 842347063 tcp 808988217 [0 2000000 0 0] ------- [2:0 -1:-1 32 0] [0 0] 0 1
s 0.000888000 _3_ AGT  --- 926168625 tcp 875443762 [0 3000000 0 0] ------- [3:0 -1:-1 32 0] [0 0] 0 1
s 0.001184000 _4_ AGT  --- 808989496 tcp 959328567 [0 4000000 0 0] ------- [4:0 -1:-1 32 0] [0 0] 0 1
s 0.001480000 _5_ AGT  --- 859386416 tcp 875572786 [0 5000000 0 0] ------- [5:0 -1:-1 32 0] [0 0] 0 1
s 0.001776000 _6_ AGT  --- 825505840 tcp 925775921 [0 6000000 0 0] ------- [6:0 -1:-1 32 0] [0 0] 0 1
s 0.002072000 _7_ AGT  --- 875705141 tcp 808333624 [0 7000000 0 0] ------- [7:0 -1:-1 32 0] [0 0] 0 1
s 0.002368000 _8_ AGT  --- 875704883 tcp 842477108 [0 8000000 0 0] ------- [8:0 -1:-1 32 0] [0 0] 0 1
s 0.002664000 _9_ AGT  --- 942683440 tcp 959721010 [0 9000000 0 0] ------- [9:0 -1:-1 32 0] [0 0] 0 1
s 0.002960000 _10_ AGT  --- 892418105 tcp 959329847 [0 a000000 0 0] ------- [10:0 -1:-1 32 0] [0 0] 0 1
s 0.003256000 _11_ AGT  --- 808923448 tcp 959329080 [0 b000000 0 0] ------- [11:0 -1:-1 32 0] [0 0] 0 1
s 0.003552000 _12_ AGT  --- 959723313 tcp 808334645 [0 c000000 0 0] ------- [12:0 -1:-1 32 0] [0 0] 0 1
s 0.003848000 _13_ AGT  --- 959461680 tcp 942552626 [0 d000000 0 0] ------- [13:0 -1:-1 32 0] [0 0] 0 1
s 0.004144000 _14_ AGT  --- 960050483 tcp 892220210 [0 e000000 0 0] ------- [14:0 -1:-1 32 0] [0 0] 0 1
s 0.004440000 _15_ AGT  --- 959722553 tcp 908997688 [0 f000000 0 0] ------- [15:0 -1:-1 32 0] [0 0] 0 1
s 0.004736000 _16_ AGT  --- 859123764 tcp 908998197 [0 10000000 0 0] ------- [16:0 -1:-1 32 0] [0 0] 0 1
s 0.005032000 _17_ AGT  --- 960050992 tcp 875444529 [0 11000000 0 0] ------- [17:0 -1:-1 32 0] [0 0] 0 1
s 0.005328000 _18_ AGT  --- 842479154 tcp 875442485 [0 12000000 0 0] ------- [18:0 -1:-1 32 0] [0 0] 0 1
s 0.005624000 _19_ AGT  --- 875968057 tcp 925776185 [0 13000000 0 0] ------- [19:0 -1:-1 32 0] [0 0] 0 1
s 0.005920000 _20_ AGT  --- 875706418 tcp 808334647 [0 14000000 0 0] ------- [20:0 -1:-1 32 0] [0 0] 0 1
s 0.006216000 _21_ AGT  --- 909259826 tcp 858665012 [0 15000000 0 0] ------- [21:0 -1:-1 32 0] [0 0] 0 1
s 0.006512000 _22_ AGT  --- 926233138 tcp 925775924 [0 16000000 0 0] ------- [22:0 -1:-1 32 0] [0 0] 0 1
s 0.006808000 _23_ AGT  --- 825569586 tcp 925774904 [0 17000000 0 0] ------- [23:0 -1:-1 32 0] [0 0] 0 1
s 0.007104000 _24_ AGT  --- 943141937 tcp 875443253 [0 18000000 0 0] ------- [24:0 -1:-1 32 0] [0 0] 0 1
s 0.007400000 _25_ AGT  --- 925972278 tcp 841890100 [0 19000000 0 0] ------- [25:0 -1:-1 32 0] [0 0] 0 1
s 0.007696000 _26_ AGT  --- 842084405 tcp 892221234 [0 1a000000 0 0] ------- [26:0 -1:-1 32 0] [0 0] 0 1
s 0.007992000 _27_ AGT  --- 808859191 tcp 925775414 [0 1b000000 0 0] ------- [27:0 -1:-1 32 0] [0 0] 0 1
s 0.008288000 _28_ AGT  --- 825307955 tcp 892220468 [0 1c000000 0 0] ------- [28:0 -1:-1 32 0] [0 0] 0 1
s 0.008584000 _29_ AGT  --- 959656499 tcp 926297651 [0 1d000000 0 0] ------- [29:0 -1:-1 32 0] [0 0] 0 1
s 0.008880000 _30_ AGT  --- 842609970 tcp 808334393 [0 1e000000 0 0] ------- [30:0 -1:-1 32 0] [0 0] 0 1
s 0.009176000 _31_ AGT  --- 875705398 tcp 942551859 [0 1f000000 0 0] ------- [31:0 -1:-1 32 0] [0 0] 0 1
s 0.009472000 _32_ AGT  --- 909455925 tcp 825241137 [0 20000000 0 0] ------- [32:0 -1:-1 32 0] [0 0] 0 1
s 0.009768000 _33_ AGT  --- 859256371 tcp 925775160 [0 21000000 0 0] ------- [33:0 -1:-1 32 0] [0 0] 0 1
s 0.010064000 _34_ AGT  --- 892613168 tcp 875638324 [0 22000000 0 0] ------- [34:0 -1:-1 32 0] [0 0] 0 1
s 0.010360000 _35_ AGT  --- 926364985 tcp 875442996 [0 23000000 0 0] ------- [35:0 -1:-1 32 0] [0 0] 0 1
s 0.010656000 _36_ AGT  --- 875640376 tcp 892220468 [0 24000000 0 0] ------- [36:0 -1:-1 32 0] [0 0] 0 1
s 0.010952000 _37_ AGT  --- 842217266 tcp 858667059 [0 25000000 0 0] ------- [37:0 -1:-1 32 0] [0 0] 0 1
s 0.011248000 _38_ AGT  --- 808532022 tcp 892220469 [0 26000000 0 0] ------- [38:0 -1:-1 32 0] [0 0] 0 1
s 0.011544000 _39_ AGT  --- 909326386 tcp 825110580 [0 27000000 0 0] ------- [39:0 -1:-1 32 0] [0 0] 0 1
s 0.011840000 _40_ AGT  --- 959526711 tcp 908997681 [0 28000000 0 0] ------- [40:0 -1:-1 32 0] [0 0] 0 1
s 0.012136000 _41_ AGT  --- 808792628 tcp 808529464 [0 29000000 0 0] ------- [41:0 -1:-1 32 0] [0 0] 0 1
s 0.012432000 _42_ AGT  --- 909325110 tcp 908997686 [0 2a000000 0 0] ------- [42:0 -1:-1 32 0] [0 0] 0 1
s 0.012728000 _43_ AGT  --- 876165176 tcp 875444277 [0 2b000000 0 0] ------- [43:0 -1:-1 32 0] [0 0] 0 1
s 0.013024000 _44_ AGT  --- 942944561 tcp 875443506 [0 2c000000 0 0] ------- [44:0 -1:-1 32 0] [0 0] 0 1
s 0.013320000 _45_ AGT  --- 959722040 tcp 959328820 [0 2d000000 0 0] ------- [45:0 -1:-1 32 0] [0 0] 0 1
s 0.013616000 _46_ AGT  --- 808990000 tcp 858665526 [0 2e000000 0 0] ------- [46:0 -1:-1 32 0] [0 0] 0 1
s 0.013912000 _47_ AGT  --- 808662584 tcp 808335153 [0 2f000000 0 0] ------- [47:0 -1:-1 32 0] [0 0] 0 1
s 0.014208000 _48_ AGT  --- 859254837 tcp 875444277 [0 30000000 0 0] ------- [48:0 -1:-1 32 0] [0 0] 0 1
s 0.014504000 _49_ AGT  --- 943076401 tcp 825111606 [0 31000000 0 0] ------- [49:0 -1:-1 32 0] [0 0] 0 1
