s 0.009831431 _0_ MAC  --- 0 message 90 [0 ffffffff 0 800] ------- [0:255 -1:255 32 0] 
s 0.036774607 _2_ MAC  --- 1 message 90 [0 ffffffff 2 800] ------- [2:255 -1:255 32 0] 
s 0.091030603 _13_ MAC  --- 2 message 90 [0 ffffffff d 800] ------- [13:255 -1:255 32 0] 
s 0.185078595 _3_ MAC  --- 3 message 90 [0 ffffffff 3 800] ------- [3:255 -1:255 32 0] 
s 0.234604987 _15_ MAC  --- 4 message 90 [0 ffffffff f 800] ------- [15:255 -1:255 32 0] 
s 0.329557798 _12_ MAC  --- 5 message 90 [0 ffffffff c 800] ------- [12:255 -1:255 32 0] 
s 0.479321153 _8_ MAC  --- 6 message 90 [0 ffffffff 8 800] ------- [8:255 -1:255 32 0] 
s 0.618841199 _10_ MAC  --- 7 message 90 [0 ffffffff a 800] ------- [10:255 -1:255 32 0] 
s 0.633164782 _6_ MAC  --- 8 message 90 [0 ffffffff 6 800] ------- [6:255 -1:255 32 0] 
s 0.891348321 _4_ MAC  --- 9 message 90 [0 ffffffff 4 800] ------- [4:255 -1:255 32 0] 
s 1.112112007 _1_ MAC  --- 10 message 90 [0 ffffffff 1 800] ------- [1:255 -1:255 32 0] 
s 1.282517659 _14_ MAC  --- 12 message 90 [0 ffffffff e 800] ------- [14:255 -1:255 32 0] 
s 1.287573448 _9_ MAC  --- 11 message 90 [0 ffffffff 9 800] ------- [9:255 -1:255 32 0] 
s 1.599087241 _5_ MAC  --- 13 message 90 [0 ffffffff 5 800] ------- [5:255 -1:255 32 0] 
s 1.637439303 _7_ MAC  --- 14 message 90 [0 ffffffff 7 800] ------- [7:255 -1:255 32 0] 
s 1.680122492 _11_ MAC  --- 15 message 90 [0 ffffffff b 800] ------- [11:255 -1:255 32 0] 
s 10.457800000 _7_ AGT  --- 16 cbr 500 [0 0 0 0] ------- [7:0 1:0 32 0] [0] 0 0
s 10.957800000 _7_ AGT  --- 17 cbr 500 [0 0 0 0] ------- [7:0 1:0 32 0] [1] 0 0
s 11.023400000 _0_ AGT  --- 18 cbr 500 [0 0 0 0] ------- [0:0 6:0 32 0] [0] 0 0
s 11.457800000 _7_ AGT  --- 19 cbr 500 [0 0 0 0] ------- [7:0 1:0 32 0] [2] 0 0
s 11.523400000 _0_ AGT  --- 20 cbr 500 [0 0 0 0] ------- [0:0 6:0 32 0] [1] 0 0
s 11.957800000 _7_ AGT  --- 21 cbr 500 [0 0 0 0] ------- [7:0 1:0 32 0] [3] 0 0
s 12.023400000 _0_ AGT  --- 22 cbr 500 [0 0 0 0] ------- [0:0 6:0 32 0] [2] 0 0
s 12.245600000 _7_ AGT  --- 24 cbr 500 [0 0 0 0] ------- [7:1 15:0 32 0] [0] 0 0
s 12.249288434 _3_ MAC  --- 23 message 90 [0 ffffffff 3 800] ------- [3:255 -1:255 32 0] 
s 12.457800000 _7_ AGT  --- 25 cbr 500 [0 0 0 0] ------- [7:0 1:0 32 0] [4] 0 0
s 12.523400000 _0_ AGT  --- 26 cbr 500 [0 0 0 0] ------- [0:0 6:0 32 0] [3] 0 0
s 12.594400918 _2_ MAC  --- 27 message 90 [0 ffffffff 2 800] ------- [2:255 -1:255 32 0] 
s 12.718400000 _2_ AGT  --- 28 cbr 500 [0 0 0 0] ------- [2:0 8:0 32 0] [0] 0 0
s 12.745600000 _7_ AGT  --- 29 cbr 500 [0 0 0 0] ------- [7:1 15:0 32 0] [1] 0 0
s 12.839906811 _6_ MAC  --- 31 message 90 [0 ffffffff 6 800] ------- [6:255 -1:255 32 0] 
s 12.845368146 _0_ MAC  --- 30 message 90 [0 ffffffff 0 800] ------- [0:255 -1:255 32 0] 
s 12.957800000 _7_ AGT  --- 32 cbr 500 [0 0 0 0] ------- [7:0 1:0 32 0] [5] 0 0
D 12.957800000 _7_ RTR  IFQ 16 cbr 520 [0 0 0 0] ------- [7:0 1:0 32 0] [0] 0 0
s 13.023400000 _0_ AGT  --- 33 cbr 500 [0 0 0 0] ------- [0:0 6:0 32 0] [4] 0 0
s 13.087471350 _13_ MAC  --- 34 message 90 [0 ffffffff d 800] ------- [13:255 -1:255 32 0] 
s 13.103276618 _12_ MAC  --- 35 message 90 [0 ffffffff c 800] ------- [12:255 -1:255 32 0] 
s 13.114741730 _4_ MAC  --- 36 message 90 [0 ffffffff 4 800] ------- [4:255 -1:255 32 0] 
s 13.218400000 _2_ AGT  --- 38 cbr 500 [0 0 0 0] ------- [2:0 8:0 32 0] [1] 0 0
s 13.218985118 _7_ MAC  --- 37 message 90 [0 ffffffff 7 800] ------- [7:255 -1:255 32 0] 
s 13.245600000 _7_ AGT  --- 39 cbr 500 [0 0 0 0] ------- [7:1 15:0 32 0] [2] 0 0
s 13.457800000 _7_ AGT  --- 40 cbr 500 [0 0 0 0] ------- [7:0 1:0 32 0] [6] 0 0
D 13.457800000 _7_ RTR  IFQ 17 cbr 520 [0 0 0 0] ------- [7:0 1:0 32 0] [1] 0 0
s 13.523400000 _0_ AGT  --- 41 cbr 500 [0 0 0 0] ------- [0:0 6:0 32 0] [5] 0 0
D 13.523400000 _0_ RTR  IFQ 18 cbr 520 [0 0 0 0] ------- [0:0 6:0 32 0] [0] 0 0
s 13.594094323 _1_ MAC  --- 42 message 90 [0 ffffffff 1 800] ------- [1:255 -1:255 32 0] 
s 13.718400000 _2_ AGT  --- 43 cbr 500 [0 0 0 0] ------- [2:0 8:0 32 0] [2] 0 0
s 13.745600000 _7_ AGT  --- 44 cbr 500 [0 0 0 0] ------- [7:1 15:0 32 0] [3] 0 0
s 13.957800000 _7_ AGT  --- 45 cbr 500 [0 0 0 0] ------- [7:0 1:0 32 0] [7] 0 0
D 13.957800000 _7_ RTR  IFQ 19 cbr 520 [0 0 0 0] ------- [7:0 1:0 32 0] [2] 0 0
s 14.023400000 _0_ AGT  --- 46 cbr 500 [0 0 0 0] ------- [0:0 6:0 32 0] [6] 0 0
D 14.023400000 _0_ RTR  IFQ 20 cbr 520 [0 0 0 0] ------- [0:0 6:0 32 0] [1] 0 0
s 14.108839966 _10_ MAC  --- 47 message 90 [0 ffffffff a 800] ------- [10:255 -1:255 32 0] 
s 14.218400000 _2_ AGT  --- 48 cbr 500 [0 0 0 0] ------- [2:0 8:0 32 0] [3] 0 0
s 14.245600000 _7_ AGT  --- 49 cbr 500 [0 0 0 0] ------- [7:1 15:0 32 0] [4] 0 0
s 14.340575886 _15_ MAC  --- 50 message 90 [0 ffffffff f 800] ------- [15:255 -1:255 32 0] 
s 14.457800000 _7_ AGT  --- 51 cbr 500 [0 0 0 0] ------- [7:0 1:0 32 0] [8] 0 0
D 14.457800000 _7_ RTR  IFQ 21 cbr 520 [0 0 0 0] ------- [7:0 1:0 32 0] [3] 0 0
s 14.523400000 _0_ AGT  --- 52 cbr 500 [0 0 0 0] ------- [0:0 6:0 32 0] [7] 0 0
D 14.523400000 _0_ RTR  IFQ 22 cbr 520 [0 0 0 0] ------- [0:0 6:0 32 0] [2] 0 0
s 14.718400000 _2_ AGT  --- 53 cbr 500 [0 0 0 0] ------- [2:0 8:0 32 0] [4] 0 0
s 14.745600000 _7_ AGT  --- 54 cbr 500 [0 0 0 0] ------- [7:1 15:0 32 0] [5] 0 0
D 14.745600000 _7_ RTR  IFQ 24 cbr 520 [0 0 0 0] ------- [7:1 15:0 32 0] [0] 0 0
s 14.957800000 _7_ AGT  --- 55 cbr 500 [0 0 0 0] ------- [7:0 1:0 32 0] [9] 0 0
D 14.957800000 _7_ RTR  IFQ 25 cbr 520 [0 0 0 0] ------- [7:0 1:0 32 0] [4] 0 0
s 15.023400000 _0_ AGT  --- 56 cbr 500 [0 0 0 0] ------- [0:0 6:0 32 0] [8] 0 0
D 15.023400000 _0_ RTR  IFQ 26 cbr 520 [0 0 0 0] ------- [0:0 6:0 32 0] [3] 0 0
s 15.068241733 _8_ MAC  --- 57 message 90 [0 ffffffff 8 800] ------- [8:255 -1:255 32 0] 
s 15.137109940 _14_ MAC  --- 58 message 90 [0 ffffffff e 800] ------- [14:255 -1:255 32 0] 
s 15.218400000 _2_ AGT  --- 59 cbr 500 [0 0 0 0] ------- [2:0 8:0 32 0] [5] 0 0
D 15.218400000 _2_ RTR  IFQ 28 cbr 520 [0 0 0 0] ------- [2:0 8:0 32 0] [0] 0 0
s 15.245600000 _7_ AGT  --- 60 cbr 500 [0 0 0 0] ------- [7:1 15:0 32 0] [6] 0 0
D 15.245600000 _7_ RTR  IFQ 29 cbr 520 [0 0 0 0] ------- [7:1 15:0 32 0] [1] 0 0
s 15.431739313 _9_ MAC  --- 61 message 90 [0 ffffffff 9 800] ------- [9:255 -1:255 32 0] 
s 15.457800000 _7_ AGT  --- 62 cbr 500 [0 0 0 0] ------- [7:0 1:0 32 0] [10] 0 0
D 15.457800000 _7_ RTR  IFQ 32 cbr 520 [0 0 0 0] ------- [7:0 1:0 32 0] [5] 0 0
s 15.523400000 _0_ AGT  --- 63 cbr 500 [0 0 0 0] ------- [0:0 6:0 32 0] [9] 0 0
D 15.523400000 _0_ RTR  IFQ 33 cbr 520 [0 0 0 0] ------- [0:0 6:0 32 0] [4] 0 0
s 15.718400000 _2_ AGT  --- 64 cbr 500 [0 0 0 0] ------- [2:0 8:0 32 0] [6] 0 0
D 15.718400000 _2_ RTR  IFQ 38 cbr 520 [0 0 0 0] ------- [2:0 8:0 32 0] [1] 0 0
s 15.745600000 _7_ AGT  --- 65 cbr 500 [0 0 0 0] ------- [7:1 15:0 32 0] [7] 0 0
D 15.745600000 _7_ RTR  IFQ 39 cbr 520 [0 0 0 0] ------- [7:1 15:0 32 0] [2] 0 0
s 15.957800000 _7_ AGT  --- 66 cbr 500 [0 0 0 0] ------- [7:0 1:0 32 0] [11] 0 0
D 15.957800000 _7_ RTR  IFQ 40 cbr 520 [0 0 0 0] ------- [7:0 1:0 32 0] [6] 0 0
s 16.023400000 _0_ AGT  --- 67 cbr 500 [0 0 0 0] ------- [0:0 6:0 32 0] [10] 0 0
D 16.023400000 _0_ RTR  IFQ 41 cbr 520 [0 0 0 0] ------- [0:0 6:0 32 0] [5] 0 0
s 16.093338440 _5_ MAC  --- 68 message 90 [0 ffffffff 5 800] ------- [5:255 -1:255 32 0] 
s 16.207499817 _11_ MAC  --- 69 message 90 [0 ffffffff b 800] ------- [11:255 -1:255 32 0] 
s 16.218400000 _2_ AGT  --- 70 cbr 500 [0 0 0 0] ------- [2:0 8:0 32 0] [7] 0 0
D 16.218400000 _2_ RTR  IFQ 43 cbr 520 [0 0 0 0] ------- [2:0 8:0 32 0] [2] 0 0
s 16.245600000 _7_ AGT  --- 71 cbr 500 [0 0 0 0] ------- [7:1 15:0 32 0] [8] 0 0
D 16.245600000 _7_ RTR  IFQ 44 cbr 520 [0 0 0 0] ------- [7:1 15:0 32 0] [3] 0 0
s 16.457800000 _7_ AGT  --- 72 cbr 500 [0 0 0 0] ------- [7:0 1:0 32 0] [12] 0 0
D 16.457800000 _7_ RTR  IFQ 45 cbr 520 [0 0 0 0] ------- [7:0 1:0 32 0] [7] 0 0
s 16.523400000 _0_ AGT  --- 73 cbr 500 [0 0 0 0] ------- [0:0 6:0 32 0] [11] 0 0
D 16.523400000 _0_ RTR  IFQ 46 cbr 520 [0 0 0 0] ------- [0:0 6:0 32 0] [6] 0 0
s 16.718400000 _2_ AGT  --- 74 cbr 500 [0 0 0 0] ------- [2:0 8:0 32 0] [8] 0 0
D 16.718400000 _2_ RTR  IFQ 48 cbr 520 [0 0 0 0] ------- [2:0 8:0 32 0] [3] 0 0
s 16.745600000 _7_ AGT  --- 75 cbr 500 [0 0 0 0] ------- [7:1 15:0 32 0] [9] 0 0
D 16.745600000 _7_ RTR  IFQ 49 cbr 520 [0 0 0 0] ------- [7:1 15:0 32 0] [4] 0 0
s 16.957800000 _7_ AGT  --- 76 cbr 500 [0 0 0 0] ------- [7:0 1:0 32 0] [13] 0 0
D 16.957800000 _7_ RTR  IFQ 51 cbr 520 [0 0 0 0] ------- [7:0 1:0 32 0] [8] 0 0
s 17.023400000 _0_ AGT  --- 77 cbr 500 [0 0 0 0] ------- [0:0 6:0 32 0] [12] 0 0
D 17.023400000 _0_ RTR  IFQ 52 cbr 520 [0 0 0 0] ------- [0:0 6:0 32 0] [7] 0 0
s 17.218400000 _2_ AGT  --- 78 cbr 500 [0 0 0 0] ------- [2:0 8:0 32 0] [9] 0 0
D 17.218400000 _2_ RTR  IFQ 53 cbr 520 [0 0 0 0] ------- [2:0 8:0 32 0] [4] 0 0
s 17.245600000 _7_ AGT  --- 79 cbr 500 [0 0 0 0] ------- [7:1 15:0 32 0] [10] 0 0
D 17.245600000 _7_ RTR  IFQ 54 cbr 520 [0 0 0 0] ------- [7:1 15:0 32 0] [5] 0 0
s 17.457800000 _7_ AGT  --- 80 cbr 500 [0 0 0 0] ------- [7:0 1:0 32 0] [14] 0 0
D 17.457800000 _7_ RTR  IFQ 55 cbr 520 [0 0 0 0] ------- [7:0 1:0 32 0] [9] 0 0
s 17.523400000 _0_ AGT  --- 81 cbr 500 [0 0 0 0] ------- [0:0 6:0 32 0] [13] 0 0
D 17.523400000 _0_ RTR  IFQ 56 cbr 520 [0 0 0 0] ------- [0:0 6:0 32 0] [8] 0 0
s 17.718400000 _2_ AGT  --- 82 cbr 500 [0 0 0 0] ------- [2:0 8:0 32 0] [10] 0 0
D 17.718400000 _2_ RTR  IFQ 59 cbr 520 [0 0 0 0] ------- [2:0 8:0 32 0] [5] 0 0
s 17.745600000 _7_ AGT  --- 83 cbr 500 [0 0 0 0] ------- [7:1 15:0 32 0] [11] 0 0
D 17.745600000 _7_ RTR  IFQ 60 cbr 520 [0 0 0 0] ------- [7:1 15:0 32 0] [6] 0 0
s 17.957800000 _7_ AGT  --- 84 cbr 500 [0 0 0 0] ------- [7:0 1:0 32 0] [15] 0 0
D 17.957800000 _7_ RTR  IFQ 62 cbr 520 [0 0 0 0] ------- [7:0 1:0 32 0] [10] 0 0
s 18.023400000 _0_ AGT  --- 85 cbr 500 [0 0 0 0] ------- [0:0 6:0 32 0] [14] 0 0
D 18.023400000 _0_ RTR  IFQ 63 cbr 520 [0 0 0 0] ------- [0:0 6:0 32 0] [9] 0 0
s 18.218400000 _2_ AGT  --- 86 cbr 500 [0 0 0 0] ------- [2:0 8:0 32 0] [11] 0 0
D 18.218400000 _2_ RTR  IFQ 64 cbr 520 [0 0 0 0] ------- [2:0 8:0 32 0] [6] 0 0
s 18.245600000 _7_ AGT  --- 87 cbr 500 [0 0 0 0] ------- [7:1 15:0 32 0] [12] 0 0
D 18.245600000 _7_ RTR  IFQ 65 cbr 520 [0 0 0 0] ------- [7:1 15:0 32 0] [7] 0 0
s 18.457800000 _7_ AGT  --- 88 cbr 500 [0 0 0 0] ------- [7:0 1:0 32 0] [16] 0 0
D 18.457800000 _7_ RTR  IFQ 66 cbr 520 [0 0 0 0] ------- [7:0 1:0 32 0] [11] 0 0
s 18.523400000 _0_ AGT  --- 89 cbr 500 [0 0 0 0] ------- [0:0 6:0 32 0] [15] 0 0
D 18.523400000 _0_ RTR  IFQ 67 cbr 520 [0 0 0 0] ------- [0:0 6:0 32 0] [10] 0 0
s 18.718400000 _2_ AGT  --- 90 cbr 500 [0 0 0 0] ------- [2:0 8:0 32 0] [12] 0 0
D 18.718400000 _2_ RTR  IFQ 70 cbr 520 [0 0 0 0] ------- [2:0 8:0 32 0] [7] 0 0
s 18.745600000 _7_ AGT  --- 91 cbr 500 [0 0 0 0] ------- [7:1 15:0 32 0] [13] 0 0
D 18.745600000 _7_ RTR  IFQ 71 cbr 520 [0 0 0 0] ------- [7:1 15:0 32 0] [8] 0 0
s 18.957800000 _7_ AGT  --- 92 cbr 500 [0 0 0 0] ------- [7:0 1:0 32 0] [17] 0 0
D 18.957800000 _7_ RTR  IFQ 72 cbr 520 [0 0 0 0] ------- [7:0 1:0 32 0] [12] 0 0
s 19.023400000 _0_ AGT  --- 93 cbr 500 [0 0 0 0] ------- [0:0 6:0 32 0] [16] 0 0
D 19.023400000 _0_ RTR  IFQ 73 cbr 520 [0 0 0 0] ------- [0:0 6:0 32 0] [11] 0 0
s 19.218400000 _2_ AGT  --- 94 cbr 500 [0 0 0 0] ------- [2:0 8:0 32 0] [13] 0 0
D 19.218400000 _2_ RTR  IFQ 74 cbr 520 [0 0 0 0] ------- [2:0 8:0 32 0] [8] 0 0
s 19.245600000 _7_ AGT  --- 95 cbr 500 [0 0 0 0] ------- [7:1 15:0 32 0] [14] 0 0
D 19.245600000 _7_ RTR  IFQ 75 cbr 520 [0 0 0 0] ------- [7:1 15:0 32 0] [9] 0 0
s 19.457800000 _7_ AGT  --- 96 cbr 500 [0 0 0 0] ------- [7:0 1:0 32 0] [18] 0 0
D 19.457800000 _7_ RTR  IFQ 76 cbr 520 [0 0 0 0] ------- [7:0 1:0 32 0] [13] 0 0
s 19.523400000 _0_ AGT  --- 97 cbr 500 [0 0 0 0] ------- [0:0 6:0 32 0] [17] 0 0
D 19.523400000 _0_ RTR  IFQ 77 cbr 520 [0 0 0 0] ------- [0:0 6:0 32 0] [12] 0 0
s 19.718400000 _2_ AGT  --- 98 cbr 500 [0 0 0 0] ------- [2:0 8:0 32 0] [14] 0 0
D 19.718400000 _2_ RTR  IFQ 78 cbr 520 [0 0 0 0] ------- [2:0 8:0 32 0] [9] 0 0
s 19.745600000 _7_ AGT  --- 99 cbr 500 [0 0 0 0] ------- [7:1 15:0 32 0] [15] 0 0
D 19.745600000 _7_ RTR  IFQ 79 cbr 520 [0 0 0 0] ------- [7:1 15:0 32 0] [10] 0 0
s 19.957800000 _7_ AGT  --- 100 cbr 500 [0 0 0 0] ------- [7:0 1:0 32 0] [19] 0 0
D 19.957800000 _7_ RTR  IFQ 80 cbr 520 [0 0 0 0] ------- [7:0 1:0 32 0] [14] 0 0
s 20.023400000 _0_ AGT  --- 101 cbr 500 [0 0 0 0] ------- [0:0 6:0 32 0] [18] 0 0
D 20.023400000 _0_ RTR  IFQ 81 cbr 520 [0 0 0 0] ------- [0:0 6:0 32 0] [13] 0 0
s 20.218400000 _2_ AGT  --- 102 cbr 500 [0 0 0 0] ------- [2:0 8:0 32 0] [15] 0 0
D 20.218400000 _2_ RTR  IFQ 82 cbr 520 [0 0 0 0] ------- [2:0 8:0 32 0] [10] 0 0
s 20.245600000 _7_ AGT  --- 103 cbr 500 [0 0 0 0] ------- [7:1 15:0 32 0] [16] 0 0
D 20.245600000 _7_ RTR  IFQ 83 cbr 520 [0 0 0 0] ------- [7:1 15:0 32 0] [11] 0 0
s 20.457800000 _7_ AGT  --- 104 cbr 500 [0 0 0 0] ------- [7:0 1:0 32 0] [20] 0 0
D 20.457800000 _7_ RTR  IFQ 84 cbr 520 [0 0 0 0] ------- [7:0 1:0 32 0] [15] 0 0
s 20.523400000 _0_ AGT  --- 105 cbr 500 [0 0 0 0] ------- [0:0 6:0 32 0] [19] 0 0
D 20.523400000 _0_ RTR  IFQ 85 cbr 520 [0 0 0 0] ------- [0:0 6:0 32 0] [14] 0 0
s 20.718400000 _2_ AGT  --- 106 cbr 500 [0 0 0 0] ------- [2:0 8:0 32 0] [16] 0 0
D 20.718400000 _2_ RTR  IFQ 86 cbr 520 [0 0 0 0] ------- [2:0 8:0 32 0] [11] 0 0
s 20.745600000 _7_ AGT  --- 107 cbr 500 [0 0 0 0] ------- [7:1 15:0 32 0] [17] 0 0
D 20.745600000 _7_ RTR  IFQ 87 cbr 520 [0 0 0 0] ------- [7:1 15:0 32 0] [12] 0 0
s 20.957800000 _7_ AGT  --- 108 cbr 500 [0 0 0 0] ------- [7:0 1:0 32 0] [21] 0 0
D 20.957800000 _7_ RTR  IFQ 88 cbr 520 [0 0 0 0] ------- [7:0 1:0 32 0] [16] 0 0
s 21.023400000 _0_ AGT  --- 109 cbr 500 [0 0 0 0] ------- [0:0 6:0 32 0] [20] 0 0
D 21.023400000 _0_ RTR  IFQ 89 cbr 520 [0 0 0 0] ------- [0:0 6:0 32 0] [15] 0 0
s 21.218400000 _2_ AGT  --- 110 cbr 500 [0 0 0 0] ------- [2:0 8:0 32 0] [17] 0 0
D 21.218400000 _2_ RTR  IFQ 90 cbr 520 [0 0 0 0] ------- [2:0 8:0 32 0] [12] 0 0
s 21.245600000 _7_ AGT  --- 111 cbr 500 [0 0 0 0] ------- [7:1 15:0 32 0] [18] 0 0
D 21.245600000 _7_ RTR  IFQ 91 cbr 520 [0 0 0 0] ------- [7:1 15:0 32 0] [13] 0 0
s 21.457800000 _7_ AGT  --- 112 cbr 500 [0 0 0 0] ------- [7:0 1:0 32 0] [22] 0 0
D 21.457800000 _7_ RTR  IFQ 92 cbr 520 [0 0 0 0] ------- [7:0 1:0 32 0] [17] 0 0
s 21.523400000 _0_ AGT  --- 113 cbr 500 [0 0 0 0] ------- [0:0 6:0 32 0] [21] 0 0
D 21.523400000 _0_ RTR  IFQ 93 cbr 520 [0 0 0 0] ------- [0:0 6:0 32 0] [16] 0 0
s 21.718400000 _2_ AGT  --- 114 cbr 500 [0 0 0 0] ------- [2:0 8:0 32 0] [18] 0 0
D 21.718400000 _2_ RTR  IFQ 94 cbr 520 [0 0 0 0] ------- [2:0 8:0 32 0] [13] 0 0
s 21.745600000 _7_ AGT  --- 115 cbr 500 [0 0 0 0] ------- [7:1 15:0 32 0] [19] 0 0
D 21.745600000 _7_ RTR  IFQ 95 cbr 520 [0 0 0 0] ------- [7:1 15:0 32 0] [14] 0 0
s 21.957800000 _7_ AGT  --- 116 cbr 500 [0 0 0 0] ------- [7:0 1:0 32 0] [23] 0 0
D 21.957800000 _7_ RTR  IFQ 96 cbr 520 [0 0 0 0] ------- [7:0 1:0 32 0] [18] 0 0
s 22.023400000 _0_ AGT  --- 117 cbr 500 [0 0 0 0] ------- [0:0 6:0 32 0] [22] 0 0
D 22.023400000 _0_ RTR  IFQ 97 cbr 520 [0 0 0 0] ------- [0:0 6:0 32 0] [17] 0 0
s 22.218400000 _2_ AGT  --- 118 cbr 500 [0 0 0 0] ------- [2:0 8:0 32 0] [19] 0 0
D 22.218400000 _2_ RTR  IFQ 98 cbr 520 [0 0 0 0] ------- [2:0 8:0 32 0] [14] 0 0
s 22.245600000 _7_ AGT  --- 119 cbr 500 [0 0 0 0] ------- [7:1 15:0 32 0] [20] 0 0
D 22.245600000 _7_ RTR  IFQ 99 cbr 520 [0 0 0 0] ------- [7:1 15:0 32 0] [15] 0 0
s 22.457800000 _7_ AGT  --- 120 cbr 500 [0 0 0 0] ------- [7:0 1:0 32 0] [24] 0 0
D 22.457800000 _7_ RTR  IFQ 100 cbr 520 [0 0 0 0] ------- [7:0 1:0 32 0] [19] 0 0
s 22.523400000 _0_ AGT  --- 121 cbr 500 [0 0 0 0] ------- [0:0 6:0 32 0] [23] 0 0
D 22.523400000 _0_ RTR  IFQ 101 cbr 520 [0 0 0 0] ------- [0:0 6:0 32 0] [18] 0 0
s 22.718400000 _2_ AGT  --- 122 cbr 500 [0 0 0 0] ------- [2:0 8:0 32 0] [20] 0 0
D 22.718400000 _2_ RTR  IFQ 102 cbr 520 [0 0 0 0] ------- [2:0 8:0 32 0] [15] 0 0
s 22.745600000 _7_ AGT  --- 123 cbr 500 [0 0 0 0] ------- [7:1 15:0 32 0] [21] 0 0
D 22.745600000 _7_ RTR  IFQ 103 cbr 520 [0 0 0 0] ------- [7:1 15:0 32 0] [16] 0 0
s 22.957800000 _7_ AGT  --- 124 cbr 500 [0 0 0 0] ------- [7:0 1:0 32 0] [25] 0 0
D 22.957800000 _7_ RTR  IFQ 104 cbr 520 [0 0 0 0] ------- [7:0 1:0 32 0] [20] 0 0
s 23.023400000 _0_ AGT  --- 125 cbr 500 [0 0 0 0] ------- [0:0 6:0 32 0] [24] 0 0
D 23.023400000 _0_ RTR  IFQ 105 cbr 520 [0 0 0 0] ------- [0:0 6:0 32 0] [19] 0 0
s 23.218400000 _2_ AGT  --- 126 cbr 500 [0 0 0 0] ------- [2:0 8:0 32 0] [21] 0 0
D 23.218400000 _2_ RTR  IFQ 106 cbr 520 [0 0 0 0] ------- [2:0 8:0 32 0] [16] 0 0
s 23.245600000 _7_ AGT  --- 127 cbr 500 [0 0 0 0] ------- [7:1 15:0 32 0] [22] 0 0
D 23.245600000 _7_ RTR  IFQ 107 cbr 520 [0 0 0 0] ------- [7:1 15:0 32 0] [17] 0 0
s 23.457800000 _7_ AGT  --- 128 cbr 500 [0 0 0 0] ------- [7:0 1:0 32 0] [26] 0 0
D 23.457800000 _7_ RTR  IFQ 108 cbr 520 [0 0 0 0] ------- [7:0 1:0 32 0] [21] 0 0
s 23.523400000 _0_ AGT  --- 129 cbr 500 [0 0 0 0] ------- [0:0 6:0 32 0] [25] 0 0
D 23.523400000 _0_ RTR  IFQ 109 cbr 520 [0 0 0 0] ------- [0:0 6:0 32 0] [20] 0 0
s 23.718400000 _2_ AGT  --- 130 cbr 500 [0 0 0 0] ------- [2:0 8:0 32 0] [22] 0 0
D 23.718400000 _2_ RTR  IFQ 110 cbr 520 [0 0 0 0] ------- [2:0 8:0 32 0] [17] 0 0
s 23.745600000 _7_ AGT  --- 131 cbr 500 [0 0 0 0] ------- [7:1 15:0 32 0] [23] 0 0
D 23.745600000 _7_ RTR  IFQ 111 cbr 520 [0 0 0 0] ------- [7:1 15:0 32 0] [18] 0 0
s 23.957800000 _7_ AGT  --- 132 cbr 500 [0 0 0 0] ------- [7:0 1:0 32 0] [27] 0 0
D 23.957800000 _7_ RTR  IFQ 112 cbr 520 [0 0 0 0] ------- [7:0 1:0 32 0] [22] 0 0
s 24.023400000 _0_ AGT  --- 133 cbr 500 [0 0 0 0] ------- [0:0 6:0 32 0] [26] 0 0
D 24.023400000 _0_ RTR  IFQ 113 cbr 520 [0 0 0 0] ------- [0:0 6:0 32 0] [21] 0 0
s 24.218400000 _2_ AGT  --- 134 cbr 500 [0 0 0 0] ------- [2:0 8:0 32 0] [23] 0 0
D 24.218400000 _2_ RTR  IFQ 114 cbr 520 [0 0 0 0] ------- [2:0 8:0 32 0] [18] 0 0
s 24.245600000 _7_ AGT  --- 135 cbr 500 [0 0 0 0] ------- [7:1 15:0 32 0] [24] 0 0
D 24.245600000 _7_ RTR  IFQ 115 cbr 520 [0 0 0 0] ------- [7:1 15:0 32 0] [19] 0 0
s 24.407566892 _6_ MAC  --- 136 message 90 [0 ffffffff 6 800] ------- [6:255 -1:255 32 0] 
s 24.457800000 _7_ AGT  --- 137 cbr 500 [0 0 0 0] ------- [7:0 1:0 32 0] [28] 0 0
D 24.457800000 _7_ RTR  IFQ 116 cbr 520 [0 0 0 0] ------- [7:0 1:0 32 0] [23] 0 0
s 24.523400000 _0_ AGT  --- 138 cbr 500 [0 0 0 0] ------- [0:0 6:0 32 0] [27] 0 0
D 24.523400000 _0_ RTR  IFQ 117 cbr 520 [0 0 0 0] ------- [0:0 6:0 32 0] [22] 0 0
s 24.718400000 _2_ AGT  --- 139 cbr 500 [0 0 0 0] ------- [2:0 8:0 32 0] [24] 0 0
D 24.718400000 _2_ RTR  IFQ 118 cbr 520 [0 0 0 0] ------- [2:0 8:0 32 0] [19] 0 0
s 24.745600000 _7_ AGT  --- 140 cbr 500 [0 0 0 0] ------- [7:1 15:0 32 0] [25] 0 0
D 24.745600000 _7_ RTR  IFQ 119 cbr 520 [0 0 0 0] ------- [7:1 15:0 32 0] [20] 0 0
s 24.827525931 _3_ MAC  --- 141 message 90 [0 ffffffff 3 800] ------- [3:255 -1:255 32 0] 
s 24.957800000 _7_ AGT  --- 142 cbr 500 [0 0 0 0] ------- [7:0 1:0 32 0] [29] 0 0
D 24.957800000 _7_ RTR  IFQ 120 cbr 520 [0 0 0 0] ------- [7:0 1:0 32 0] [24] 0 0
s 25.023400000 _0_ AGT  --- 143 cbr 500 [0 0 0 0] ------- [0:0 6:0 32 0] [28] 0 0
D 25.023400000 _0_ RTR  IFQ 121 cbr 520 [0 0 0 0] ------- [0:0 6:0 32 0] [23] 0 0
s 25.218400000 _2_ AGT  --- 144 cbr 500 [0 0 0 0] ------- [2:0 8:0 32 0] [25] 0 0
D 25.218400000 _2_ RTR  IFQ 122 cbr 520 [0 0 0 0] ------- [2:0 8:0 32 0] [20] 0 0
s 25.245600000 _7_ AGT  --- 145 cbr 500 [0 0 0 0] ------- [7:1 15:0 32 0] [26] 0 0
D 25.245600000 _7_ RTR  IFQ 123 cbr 520 [0 0 0 0] ------- [7:1 15:0 32 0] [21] 0 0
s 25.457800000 _7_ AGT  --- 146 cbr 500 [0 0 0 0] ------- [7:0 1:0 32 0] [30] 0 0
D 25.457800000 _7_ RTR  IFQ 124 cbr 520 [0 0 0 0] ------- [7:0 1:0 32 0] [25] 0 0
s 25.478572376 _13_ MAC  --- 147 message 90 [0 ffffffff d 800] ------- [13:255 -1:255 32 0] 
s 25.497819213 _0_ MAC  --- 148 message 90 [0 ffffffff 0 800] ------- [0:255 -1:255 32 0] 
s 25.523400000 _0_ AGT  --- 149 cbr 500 [0 0 0 0] ------- [0:0 6:0 32 0] [29] 0 0
D 25.523400000 _0_ RTR  IFQ 125 cbr 520 [0 0 0 0] ------- [0:0 6:0 32 0] [24] 0 0
s 25.718400000 _2_ AGT  --- 150 cbr 500 [0 0 0 0] ------- [2:0 8:0 32 0] [26] 0 0
D 25.718400000 _2_ RTR  IFQ 126 cbr 520 [0 0 0 0] ------- [2:0 8:0 32 0] [21] 0 0
s 25.745600000 _7_ AGT  --- 151 cbr 500 [0 0 0 0] ------- [7:1 15:0 32 0] [27] 0 0
D 25.745600000 _7_ RTR  IFQ 127 cbr 520 [0 0 0 0] ------- [7:1 15:0 32 0] [22] 0 0
s 25.957800000 _7_ AGT  --- 152 cbr 500 [0 0 0 0] ------- [7:0 1:0 32 0] [31] 0 0
D 25.957800000 _7_ RTR  IFQ 128 cbr 520 [0 0 0 0] ------- [7:0 1:0 32 0] [26] 0 0
s 26.023400000 _0_ AGT  --- 153 cbr 500 [0 0 0 0] ------- [0:0 6:0 32 0] [30] 0 0
D 26.023400000 _0_ RTR  IFQ 129 cbr 520 [0 0 0 0] ------- [0:0 6:0 32 0] [25] 0 0
s 26.154794751 _10_ MAC  --- 154 message 90 [0 ffffffff a 800] ------- [10:255 -1:255 32 0] 
s 26.158975580 _7_ MAC  --- 155 message 90 [0 ffffffff 7 800] ------- [7:255 -1:255 32 0] 
s 26.218400000 _2_ AGT  --- 156 cbr 500 [0 0 0 0] ------- [2:0 8:0 32 0] [27] 0 0
D 26.218400000 _2_ RTR  IFQ 130 cbr 520 [0 0 0 0] ------- [2:0 8:0 32 0] [22] 0 0
s 26.245600000 _7_ AGT  --- 157 cbr 500 [0 0 0 0] ------- [7:1 15:0 32 0] [28] 0 0
D 26.245600000 _7_ RTR  IFQ 131 cbr 520 [0 0 0 0] ------- [7:1 15:0 32 0] [23] 0 0
s 26.333530895 _2_ MAC  --- 158 message 90 [0 ffffffff 2 800] ------- [2:255 -1:255 32 0] 
s 26.457800000 _7_ AGT  --- 159 cbr 500 [0 0 0 0] ------- [7:0 1:0 32 0] [32] 0 0
D 26.457800000 _7_ RTR  IFQ 132 cbr 520 [0 0 0 0] ------- [7:0 1:0 32 0] [27] 0 0
s 26.479834067 _1_ MAC  --- 160 message 90 [0 ffffffff 1 800] ------- [1:255 -1:255 32 0] 
s 26.523400000 _0_ AGT  --- 161 cbr 500 [0 0 0 0] ------- [0:0 6:0 32 0] [31] 0 0
D 26.523400000 _0_ RTR  IFQ 133 cbr 520 [0 0 0 0] ------- [0:0 6:0 32 0] [26] 0 0
s 26.718400000 _2_ AGT  --- 162 cbr 500 [0 0 0 0] ------- [2:0 8:0 32 0] [28] 0 0
D 26.718400000 _2_ RTR  IFQ 134 cbr 520 [0 0 0 0] ------- [2:0 8:0 32 0] [23] 0 0
s 26.745600000 _7_ AGT  --- 163 cbr 500 [0 0 0 0] ------- [7:1 15:0 32 0] [29] 0 0
D 26.745600000 _7_ RTR  IFQ 135 cbr 520 [0 0 0 0] ------- [7:1 15:0 32 0] [24] 0 0
s 26.957800000 _7_ AGT  --- 164 cbr 500 [0 0 0 0] ------- [7:0 1:0 32 0] [33] 0 0
D 26.957800000 _7_ RTR  IFQ 137 cbr 520 [0 0 0 0] ------- [7:0 1:0 32 0] [28] 0 0
s 27.023400000 _0_ AGT  --- 165 cbr 500 [0 0 0 0] ------- [0:0 6:0 32 0] [32] 0 0
D 27.023400000 _0_ RTR  IFQ 138 cbr 520 [0 0 0 0] ------- [0:0 6:0 32 0] [27] 0 0
s 27.052684468 _14_ MAC  --- 166 message 90 [0 ffffffff e 800] ------- [14:255 -1:255 32 0] 
s 27.204637425 _4_ MAC  --- 167 message 90 [0 ffffffff 4 800] ------- [4:255 -1:255 32 0] 
s 27.218400000 _2_ AGT  --- 168 cbr 500 [0 0 0 0] ------- [2:0 8:0 32 0] [29] 0 0
D 27.218400000 _2_ RTR  IFQ 139 cbr 520 [0 0 0 0] ------- [2:0 8:0 32 0] [24] 0 0
s 27.245600000 _7_ AGT  --- 169 cbr 500 [0 0 0 0] ------- [7:1 15:0 32 0] [30] 0 0
D 27.245600000 _7_ RTR  IFQ 140 cbr 520 [0 0 0 0] ------- [7:1 15:0 32 0] [25] 0 0
s 27.457800000 _7_ AGT  --- 170 cbr 500 [0 0 0 0] ------- [7:0 1:0 32 0] [34] 0 0
D 27.457800000 _7_ RTR  IFQ 142 cbr 520 [0 0 0 0] ------- [7:0 1:0 32 0] [29] 0 0
s 27.523400000 _0_ AGT  --- 171 cbr 500 [0 0 0 0] ------- [0:0 6:0 32 0] [33] 0 0
D 27.523400000 _0_ RTR  IFQ 143 cbr 520 [0 0 0 0] ------- [0:0 6:0 32 0] [28] 0 0
s 27.648515872 _12_ MAC  --- 172 message 90 [0 ffffffff c 800] ------- [12:255 -1:255 32 0] 
s 27.718400000 _2_ AGT  --- 173 cbr 500 [0 0 0 0] ------- [2:0 8:0 32 0] [30] 0 0
D 27.718400000 _2_ RTR  IFQ 144 cbr 520 [0 0 0 0] ------- [2:0 8:0 32 0] [25] 0 0
s 27.745600000 _7_ AGT  --- 174 cbr 500 [0 0 0 0] ------- [7:1 15:0 32 0] [31] 0 0
D 27.745600000 _7_ RTR  IFQ 145 cbr 520 [0 0 0 0] ------- [7:1 15:0 32 0] [26] 0 0
s 27.957800000 _7_ AGT  --- 175 cbr 500 [0 0 0 0] ------- [7:0 1:0 32 0] [35] 0 0
D 27.957800000 _7_ RTR  IFQ 146 cbr 520 [0 0 0 0] ------- [7:0 1:0 32 0] [30] 0 0
s 28.023400000 _0_ AGT  --- 176 cbr 500 [0 0 0 0] ------- [0:0 6:0 32 0] [34] 0 0
D 28.023400000 _0_ RTR  IFQ 149 cbr 520 [0 0 0 0] ------- [0:0 6:0 32 0] [29] 0 0
s 28.218400000 _2_ AGT  --- 177 cbr 500 [0 0 0 0] ------- [2:0 8:0 32 0] [31] 0 0
D 28.218400000 _2_ RTR  IFQ 150 cbr 520 [0 0 0 0] ------- [2:0 8:0 32 0] [26] 0 0
s 28.245600000 _7_ AGT  --- 178 cbr 500 [0 0 0 0] ------- [7:1 15:0 32 0] [32] 0 0
D 28.245600000 _7_ RTR  IFQ 151 cbr 520 [0 0 0 0] ------- [7:1 15:0 32 0] [27] 0 0
s 28.315579280 _11_ MAC  --- 179 message 90 [0 ffffffff b 800] ------- [11:255 -1:255 32 0] 
s 28.344897096 _15_ MAC  --- 180 message 90 [0 ffffffff f 800] ------- [15:255 -1:255 32 0] 
s 28.457800000 _7_ AGT  --- 181 cbr 500 [0 0 0 0] ------- [7:0 1:0 32 0] [36] 0 0
D 28.457800000 _7_ RTR  IFQ 152 cbr 520 [0 0 0 0] ------- [7:0 1:0 32 0] [31] 0 0
s 28.523400000 _0_ AGT  --- 182 cbr 500 [0 0 0 0] ------- [0:0 6:0 32 0] [35] 0 0
D 28.523400000 _0_ RTR  IFQ 153 cbr 520 [0 0 0 0] ------- [0:0 6:0 32 0] [30] 0 0
s 28.626089476 _5_ MAC  --- 183 message 90 [0 ffffffff 5 800] ------- [5:255 -1:255 32 0] 
s 28.718400000 _2_ AGT  --- 184 cbr 500 [0 0 0 0] ------- [2:0 8:0 32 0] [32] 0 0
D 28.718400000 _2_ RTR  IFQ 156 cbr 520 [0 0 0 0] ------- [2:0 8:0 32 0] [27] 0 0
s 28.745600000 _7_ AGT  --- 185 cbr 500 [0 0 0 0] ------- [7:1 15:0 32 0] [33] 0 0
D 28.745600000 _7_ RTR  IFQ 157 cbr 520 [0 0 0 0] ------- [7:1 15:0 32 0] [28] 0 0
s 28.957800000 _7_ AGT  --- 186 cbr 500 [0 0 0 0] ------- [7:0 1:0 32 0] [37] 0 0
D 28.957800000 _7_ RTR  IFQ 159 cbr 520 [0 0 0 0] ------- [7:0 1:0 32 0] [32] 0 0
s 29.023400000 _0_ AGT  --- 187 cbr 500 [0 0 0 0] ------- [0:0 6:0 32 0] [36] 0 0
D 29.023400000 _0_ RTR  IFQ 161 cbr 520 [0 0 0 0] ------- [0:0 6:0 32 0] [31] 0 0
s 29.218400000 _2_ AGT  --- 188 cbr 500 [0 0 0 0] ------- [2:0 8:0 32 0] [33] 0 0
D 29.218400000 _2_ RTR  IFQ 162 cbr 520 [0 0 0 0] ------- [2:0 8:0 32 0] [28] 0 0
s 29.245600000 _7_ AGT  --- 189 cbr 500 [0 0 0 0] ------- [7:1 15:0 32 0] [34] 0 0
D 29.245600000 _7_ RTR  IFQ 163 cbr 520 [0 0 0 0] ------- [7:1 15:0 32 0] [29] 0 0
s 29.324254286 _9_ MAC  --- 190 message 90 [0 ffffffff 9 800] ------- [9:255 -1:255 32 0] 
s 29.457800000 _7_ AGT  --- 191 cbr 500 [0 0 0 0] ------- [7:0 1:0 32 0] [38] 0 0
D 29.457800000 _7_ RTR  IFQ 164 cbr 520 [0 0 0 0] ------- [7:0 1:0 32 0] [33] 0 0
s 29.505687818 _8_ MAC  --- 192 message 90 [0 ffffffff 8 800] ------- [8:255 -1:255 32 0] 
s 29.523400000 _0_ AGT  --- 193 cbr 500 [0 0 0 0] ------- [0:0 6:0 32 0] [37] 0 0
D 29.523400000 _0_ RTR  IFQ 165 cbr 520 [0 0 0 0] ------- [0:0 6:0 32 0] [32] 0 0
s 29.718400000 _2_ AGT  --- 194 cbr 500 [0 0 0 0] ------- [2:0 8:0 32 0] [34] 0 0
D 29.718400000 _2_ RTR  IFQ 168 cbr 520 [0 0 0 0] ------- [2:0 8:0 32 0] [29] 0 0
s 29.745600000 _7_ AGT  --- 195 cbr 500 [0 0 0 0] ------- [7:1 15:0 32 0] [35] 0 0
D 29.745600000 _7_ RTR  IFQ 169 cbr 520 [0 0 0 0] ------- [7:1 15:0 32 0] [30] 0 0
s 29.957800000 _7_ AGT  --- 196 cbr 500 [0 0 0 0] ------- [7:0 1:0 32 0] [39] 0 0
D 29.957800000 _7_ RTR  IFQ 170 cbr 520 [0 0 0 0] ------- [7:0 1:0 32 0] [34] 0 0
s 30.023400000 _0_ AGT  --- 197 cbr 500 [0 0 0 0] ------- [0:0 6:0 32 0] [38] 0 0
D 30.023400000 _0_ RTR  IFQ 171 cbr 520 [0 0 0 0] ------- [0:0 6:0 32 0] [33] 0 0
s 30.218400000 _2_ AGT  --- 198 cbr 500 [0 0 0 0] ------- [2:0 8:0 32 0] [35] 0 0
D 30.218400000 _2_ RTR  IFQ 173 cbr 520 [0 0 0 0] ------- [2:0 8:0 32 0] [30] 0 0
s 30.245600000 _7_ AGT  --- 199 cbr 500 [0 0 0 0] ------- [7:1 15:0 32 0] [36] 0 0
D 30.245600000 _7_ RTR  IFQ 174 cbr 520 [0 0 0 0] ------- [7:1 15:0 32 0] [31] 0 0
s 30.457800000 _7_ AGT  --- 200 cbr 500 [0 0 0 0] ------- [7:0 1:0 32 0] [40] 0 0
D 30.457800000 _7_ RTR  IFQ 175 cbr 520 [0 0 0 0] ------- [7:0 1:0 32 0] [35] 0 0
s 30.523400000 _0_ AGT  --- 201 cbr 500 [0 0 0 0] ------- [0:0 6:0 32 0] [39] 0 0
D 30.523400000 _0_ RTR  IFQ 176 cbr 520 [0 0 0 0] ------- [0:0 6:0 32 0] [34] 0 0
s 30.718400000 _2_ AGT  --- 202 cbr 500 [0 0 0 0] ------- [2:0 8:0 32 0] [36] 0 0
D 30.718400000 _2_ RTR  IFQ 177 cbr 520 [0 0 0 0] ------- [2:0 8:0 32 0] [31] 0 0
s 30.745600000 _7_ AGT  --- 203 cbr 500 [0 0 0 0] ------- [7:1 15:0 32 0] [37] 0 0
D 30.745600000 _7_ RTR  IFQ 178 cbr 520 [0 0 0 0] ------- [7:1 15:0 32 0] [32] 0 0
s 30.957800000 _7_ AGT  --- 204 cbr 500 [0 0 0 0] ------- [7:0 1:0 32 0] [41] 0 0
D 30.957800000 _7_ RTR  IFQ 181 cbr 520 [0 0 0 0] ------- [7:0 1:0 32 0] [36] 0 0
s 31.023400000 _0_ AGT  --- 205 cbr 500 [0 0 0 0] ------- [0:0 6:0 32 0] [40] 0 0
D 31.023400000 _0_ RTR  IFQ 182 cbr 520 [0 0 0 0] ------- [0:0 6:0 32 0] [35] 0 0
s 31.218400000 _2_ AGT  --- 206 cbr 500 [0 0 0 0] ------- [2:0 8:0 32 0] [37] 0 0
D 31.218400000 _2_ RTR  IFQ 184 cbr 520 [0 0 0 0] ------- [2:0 8:0 32 0] [32] 0 0
s 31.245600000 _7_ AGT  --- 207 cbr 500 [0 0 0 0] ------- [7:1 15:0 32 0] [38] 0 0
D 31.245600000 _7_ RTR  IFQ 185 cbr 520 [0 0 0 0] ------- [7:1 15:0 32 0] [33] 0 0
s 31.457800000 _7_ AGT  --- 208 cbr 500 [0 0 0 0] ------- [7:0 1:0 32 0] [42] 0 0
D 31.457800000 _7_ RTR  IFQ 186 cbr 520 [0 0 0 0] ------- [7:0 1:0 32 0] [37] 0 0
s 31.523400000 _0_ AGT  --- 209 cbr 500 [0 0 0 0] ------- [0:0 6:0 32 0] [41] 0 0
D 31.523400000 _0_ RTR  IFQ 187 cbr 520 [0 0 0 0] ------- [0:0 6:0 32 0] [36] 0 0
s 31.718400000 _2_ AGT  --- 210 cbr 500 [0 0 0 0] ------- [2:0 8:0 32 0] [38] 0 0
D 31.718400000 _2_ RTR  IFQ 188 cbr 520 [0 0 0 0] ------- [2:0 8:0 32 0] [33] 0 0
s 31.745600000 _7_ AGT  --- 211 cbr 500 [0 0 0 0] ------- [7:1 15:0 32 0] [39] 0 0
D 31.745600000 _7_ RTR  IFQ 189 cbr 520 [0 0 0 0] ------- [7:1 15:0 32 0] [34] 0 0
s 31.957800000 _7_ AGT  --- 212 cbr 500 [0 0 0 0] ------- [7:0 1:0 32 0] [43] 0 0
D 31.957800000 _7_ RTR  IFQ 191 cbr 520 [0 0 0 0] ------- [7:0 1:0 32 0] [38] 0 0
s 32.023400000 _0_ AGT  --- 213 cbr 500 [0 0 0 0] ------- [0:0 6:0 32 0] [42] 0 0
D 32.023400000 _0_ RTR  IFQ 193 cbr 520 [0 0 0 0] ------- [0:0 6:0 32 0] [37] 0 0
s 32.218400000 _2_ AGT  --- 214 cbr 500 [0 0 0 0] ------- [2:0 8:0 32 0] [39] 0 0
D 32.218400000 _2_ RTR  IFQ 194 cbr 520 [0 0 0 0] ------- [2:0 8:0 32 0] [34] 0 0